********************************************************************************
*                       GENERAL UTILITY LATTICE PROGRAM                        *
*                                 Julian Gale                                  *
*                       Curtin Institute for Computation                       *
*                           Department of Chemistry                            *
*                    Curtin University, Western Australia                      *
********************************************************************************
* Version = 5.0.1 * Last modified =  16th January 2018                         *
********************************************************************************
*  single       - perform a single point run                                   *
*  conp         - constant pressure calculation                                *
*  phonon       - calculate phonons for final geometry                         *
*  eigenvectors - output phonon eigenvectors                                   *
********************************************************************************
* ASE calculation                                                              *
********************************************************************************


  Job Started  at 11:27.55 28th September  2018                               

  Number of CPUs =     1


  Total number of configurations input =   1

********************************************************************************
*  Input for Configuration =   1                                               *
********************************************************************************

  Formula = MgO                                                         

  Number of irreducible atoms/shells =       2


  Total number atoms/shells =       2

  Dimensionality = 3               :  Bulk   



  Cartesian lattice vectors (Angstroms) :

        3.470300    0.000000    0.000000
        0.000000   10.000000    0.000000
        0.000000    0.000000   10.000000

  Cell parameters (Angstroms/Degrees):

  a =       3.4703    alpha =  90.0000
  b =      10.0000    beta  =  90.0000
  c =      10.0000    gamma =  90.0000

  Initial cell volume =         347.030000 Angs**3

  Shrinking factors =     **     1     1

  Temperature of configuration =  0.000     K 

  Pressure of configuration =         0.000 GPa 

  Fractional coordinates of asymmetric unit :

--------------------------------------------------------------------------------
   No.  Atomic       x           y          z         Charge      Occupancy
        Label      (Frac)      (Frac)     (Frac)        (e)         (Frac)  
--------------------------------------------------------------------------------
      1 Mg    c    0.000000    0.000000    0.000000     2.00000    1.000000    
      2 O     c    0.500000    0.000000    0.000000    -2.00000    1.000000    
--------------------------------------------------------------------------------


  Brillouin zone sampling points :

--------------------------------------------------------------------------------
  Point number          x          y          z            Weight
--------------------------------------------------------------------------------
        1          -0.500000   0.000000   0.000000     0.00680272
        2          -0.489583   0.000000   0.000000     0.00680272
        3          -0.479167   0.000000   0.000000     0.00680272
        4          -0.468750   0.000000   0.000000     0.00680272
        5          -0.458333   0.000000   0.000000     0.00680272
        6          -0.447917   0.000000   0.000000     0.00680272
        7          -0.437500   0.000000   0.000000     0.00680272
        8          -0.427083   0.000000   0.000000     0.00680272
        9          -0.416667   0.000000   0.000000     0.00680272
       10          -0.406250   0.000000   0.000000     0.00680272
       11          -0.395833   0.000000   0.000000     0.00680272
       12          -0.385417   0.000000   0.000000     0.00680272
       13          -0.375000   0.000000   0.000000     0.00680272
       14          -0.364583   0.000000   0.000000     0.00680272
       15          -0.354167   0.000000   0.000000     0.00680272
       16          -0.343750   0.000000   0.000000     0.00680272
       17          -0.333333   0.000000   0.000000     0.00680272
       18          -0.322917   0.000000   0.000000     0.00680272
       19          -0.312500   0.000000   0.000000     0.00680272
       20          -0.302083   0.000000   0.000000     0.00680272
       21          -0.291667   0.000000   0.000000     0.00680272
       22          -0.281250   0.000000   0.000000     0.00680272
       23          -0.270833   0.000000   0.000000     0.00680272
       24          -0.260417   0.000000   0.000000     0.00680272
       25          -0.250000   0.000000   0.000000     0.00680272
       26          -0.239583   0.000000   0.000000     0.00680272
       27          -0.229167   0.000000   0.000000     0.00680272
       28          -0.218750   0.000000   0.000000     0.00680272
       29          -0.208333   0.000000   0.000000     0.00680272
       30          -0.197917   0.000000   0.000000     0.00680272
       31          -0.187500   0.000000   0.000000     0.00680272
       32          -0.177083   0.000000   0.000000     0.00680272
       33          -0.166667   0.000000   0.000000     0.00680272
       34          -0.156250   0.000000   0.000000     0.00680272
       35          -0.145833   0.000000   0.000000     0.00680272
       36          -0.135417   0.000000   0.000000     0.00680272
       37          -0.125000   0.000000   0.000000     0.00680272
       38          -0.114583   0.000000   0.000000     0.00680272
       39          -0.104167   0.000000   0.000000     0.00680272
       40          -0.093750   0.000000   0.000000     0.00680272
       41          -0.083333   0.000000   0.000000     0.00680272
       42          -0.072917   0.000000   0.000000     0.00680272
       43          -0.062500   0.000000   0.000000     0.00680272
       44          -0.052083   0.000000   0.000000     0.00680272
       45          -0.041667   0.000000   0.000000     0.00680272
       46          -0.031250   0.000000   0.000000     0.00680272
       47          -0.020833   0.000000   0.000000     0.00680272
       48          -0.010417   0.000000   0.000000     0.00680272
       49           0.000000   0.000000   0.000000     0.00680272
       50           0.010417   0.000000   0.000000     0.00680272
       51           0.020833   0.000000   0.000000     0.00680272
       52           0.031250   0.000000   0.000000     0.00680272
       53           0.041667   0.000000   0.000000     0.00680272
       54           0.052083   0.000000   0.000000     0.00680272
       55           0.062500   0.000000   0.000000     0.00680272
       56           0.072917   0.000000   0.000000     0.00680272
       57           0.083333   0.000000   0.000000     0.00680272
       58           0.093750   0.000000   0.000000     0.00680272
       59           0.104167   0.000000   0.000000     0.00680272
       60           0.114583   0.000000   0.000000     0.00680272
       61           0.125000   0.000000   0.000000     0.00680272
       62           0.135417   0.000000   0.000000     0.00680272
       63           0.145833   0.000000   0.000000     0.00680272
       64           0.156250   0.000000   0.000000     0.00680272
       65           0.166667   0.000000   0.000000     0.00680272
       66           0.177083   0.000000   0.000000     0.00680272
       67           0.187500   0.000000   0.000000     0.00680272
       68           0.197917   0.000000   0.000000     0.00680272
       69           0.208333   0.000000   0.000000     0.00680272
       70           0.218750   0.000000   0.000000     0.00680272
       71           0.229167   0.000000   0.000000     0.00680272
       72           0.239583   0.000000   0.000000     0.00680272
       73           0.250000   0.000000   0.000000     0.00680272
       74           0.260417   0.000000   0.000000     0.00680272
       75           0.270833   0.000000   0.000000     0.00680272
       76           0.281250   0.000000   0.000000     0.00680272
       77           0.291667   0.000000   0.000000     0.00680272
       78           0.302083   0.000000   0.000000     0.00680272
       79           0.312500   0.000000   0.000000     0.00680272
       80           0.322917   0.000000   0.000000     0.00680272
       81           0.333333   0.000000   0.000000     0.00680272
       82           0.343750   0.000000   0.000000     0.00680272
       83           0.354167   0.000000   0.000000     0.00680272
       84           0.364583   0.000000   0.000000     0.00680272
       85           0.375000   0.000000   0.000000     0.00680272
       86           0.385417   0.000000   0.000000     0.00680272
       87           0.395833   0.000000   0.000000     0.00680272
       88           0.406250   0.000000   0.000000     0.00680272
       89           0.416667   0.000000   0.000000     0.00680272
       90           0.427083   0.000000   0.000000     0.00680272
       91           0.437500   0.000000   0.000000     0.00680272
       92           0.447917   0.000000   0.000000     0.00680272
       93           0.458333   0.000000   0.000000     0.00680272
       94           0.468750   0.000000   0.000000     0.00680272
       95           0.479167   0.000000   0.000000     0.00680272
       96           0.489583   0.000000   0.000000     0.00680272
       97           0.500000   0.000000   0.000000     0.00680272
       98           0.005000   0.500000   0.500000     0.00680272
       99           0.015000   0.500000   0.500000     0.00680272
      100           0.025000   0.500000   0.500000     0.00680272
      101           0.035000   0.500000   0.500000     0.00680272
      102           0.045000   0.500000   0.500000     0.00680272
      103           0.055000   0.500000   0.500000     0.00680272
      104           0.065000   0.500000   0.500000     0.00680272
      105           0.075000   0.500000   0.500000     0.00680272
      106           0.085000   0.500000   0.500000     0.00680272
      107           0.095000   0.500000   0.500000     0.00680272
      108           0.105000   0.500000   0.500000     0.00680272
      109           0.115000   0.500000   0.500000     0.00680272
      110           0.125000   0.500000   0.500000     0.00680272
      111           0.135000   0.500000   0.500000     0.00680272
      112           0.145000   0.500000   0.500000     0.00680272
      113           0.155000   0.500000   0.500000     0.00680272
      114           0.165000   0.500000   0.500000     0.00680272
      115           0.175000   0.500000   0.500000     0.00680272
      116           0.185000   0.500000   0.500000     0.00680272
      117           0.195000   0.500000   0.500000     0.00680272
      118           0.205000   0.500000   0.500000     0.00680272
      119           0.215000   0.500000   0.500000     0.00680272
      120           0.225000   0.500000   0.500000     0.00680272
      121           0.235000   0.500000   0.500000     0.00680272
      122           0.245000   0.500000   0.500000     0.00680272
      123           0.255000   0.500000   0.500000     0.00680272
      124           0.265000   0.500000   0.500000     0.00680272
      125           0.275000   0.500000   0.500000     0.00680272
      126           0.285000   0.500000   0.500000     0.00680272
      127           0.295000   0.500000   0.500000     0.00680272
      128           0.305000   0.500000   0.500000     0.00680272
      129           0.315000   0.500000   0.500000     0.00680272
      130           0.325000   0.500000   0.500000     0.00680272
      131           0.335000   0.500000   0.500000     0.00680272
      132           0.345000   0.500000   0.500000     0.00680272
      133           0.355000   0.500000   0.500000     0.00680272
      134           0.365000   0.500000   0.500000     0.00680272
      135           0.375000   0.500000   0.500000     0.00680272
      136           0.385000   0.500000   0.500000     0.00680272
      137           0.395000   0.500000   0.500000     0.00680272
      138           0.405000   0.500000   0.500000     0.00680272
      139           0.415000   0.500000   0.500000     0.00680272
      140           0.425000   0.500000   0.500000     0.00680272
      141           0.435000   0.500000   0.500000     0.00680272
      142           0.445000   0.500000   0.500000     0.00680272
      143           0.455000   0.500000   0.500000     0.00680272
      144           0.465000   0.500000   0.500000     0.00680272
      145           0.475000   0.500000   0.500000     0.00680272
      146           0.485000   0.500000   0.500000     0.00680272
      147           0.495000   0.500000   0.500000     0.00680272
--------------------------------------------------------------------------------


********************************************************************************
*  General input information                                                   *
********************************************************************************

  Species output for all configurations : 

--------------------------------------------------------------------------------
  Species    Type    Atomic    Atomic    Charge       Radii (Angs)     Library
                     Number     Mass       (e)     Cova   Ionic  VDW   Symbol
--------------------------------------------------------------------------------
    Mg       Core       12      24.31   2.000000   1.100  0.000  1.640          
    O        Core        8      16.00  -2.000000   0.730  0.000  1.360          
--------------------------------------------------------------------------------


  Lattice summation method               =    Ewald          (3-D)
                                         =    Parry          (2-D)
                                         =    Saunders et al (1-D)
  Accuracy factor for lattice sums       =   12.000


  Time limit = Infinity

  Maximum range for interatomic potentials =    100000.000000 Angstroms

  General interatomic potentials :

--------------------------------------------------------------------------------
Atom  Types   Potential      Parameter       Value         Units   Cutoffs(Ang)
  1     2                                                            Min /  Max 
--------------------------------------------------------------------------------
O    c Mg   c Buckingham    Buckingham A     1295.5534    eV        0.000 12.000
                            Buckingham rho  0.30000000    Ang       
                            Buckingham C     0.0000000    eV*Ang^6  
--------------------------------------------------------------------------------
O    c O    c Buckingham    Buckingham A     22764.000    eV        0.000 12.000
                            Buckingham rho  0.14900000    Ang       
                            Buckingham C     27.880000    eV*Ang^6  
--------------------------------------------------------------------------------

********************************************************************************
*  Output for configuration   1                                                *
********************************************************************************


  Components of energy : 

--------------------------------------------------------------------------------
  Interatomic potentials     =           7.95628009 eV    
  Monopole - monopole (real) =         -28.65098930 eV    
  Monopole - monopole (recip)=         -17.36763259 eV    
  Monopole - monopole (total)=         -46.01862190 eV    
--------------------------------------------------------------------------------
  Total lattice energy       =         -38.06234181 eV    
--------------------------------------------------------------------------------
  Total lattice energy       =           -3672.4341 kJ/(mole unit cells)
--------------------------------------------------------------------------------

  Born effective charge tensors : 

-------------------------------------------------------------------------------
  Atom             x           y             z
-------------------------------------------------------------------------------
   1 Mg    x       2.0000      0.0000      0.0000
           y       0.0000      2.0000      0.0000
           z       0.0000      0.0000      2.0000
-------------------------------------------------------------------------------
   2 O     x      -2.0000      0.0000      0.0000
           y       0.0000     -2.0000      0.0000
           z       0.0000      0.0000     -2.0000
-------------------------------------------------------------------------------




  Elastic Constant Matrix: (Units=GPa)

-------------------------------------------------------------------------------
  Indices      1         2         3         4         5         6    
-------------------------------------------------------------------------------
       1     80.3391   -0.0002   -0.0002    0.0000   -0.0000   -0.0000
       2     -0.0002   -0.0008    0.0000   -0.0000    0.0000   -0.0000
       3     -0.0002    0.0000   -0.0008   -0.0000   -0.0000    0.0000
       4      0.0000   -0.0000   -0.0000    0.0002   -0.0000   -0.0000
       5     -0.0000    0.0000   -0.0000   -0.0000    0.0005    0.0000
       6     -0.0000   -0.0000    0.0000   -0.0000    0.0000    0.0005
-------------------------------------------------------------------------------


  Elastic Compliance Matrix: (Units=1/GPa)

-------------------------------------------------------------------------------
  Indices      1         2         3         4         5         6    
-------------------------------------------------------------------------------
       1    0.012447 -0.003652 -0.003652 -0.000000  0.000000 -0.000000
       2   -0.003652********** -0.123301 -0.000000 -0.000000 -0.000000
       3   -0.003652 -0.123301********** -0.000000 -0.000000  0.000000
       4   -0.000000 -0.000000 -0.000000**********  0.000000  0.000000
       5    0.000000 -0.000000 -0.000000  0.000000********** -0.000000
       6   -0.000000 -0.000000  0.000000  0.000000 -0.000000**********
-------------------------------------------------------------------------------

  Mechanical properties :

-------------------------------------------------------------------------------
  Convention :                    Reuss         Voigt         Hill
-------------------------------------------------------------------------------
  Bulk  Modulus (GPa)     =      -0.00040       8.92629       4.46294
  Shear Modulus (GPa)     =       0.00073       5.35609       2.67841
-------------------------------------------------------------------------------
  Velocity S-wave (km/s)  =       0.06136       5.26954       3.72638
  Velocity P-wave (km/s)  =       0.05414       9.12697       6.45385
-------------------------------------------------------------------------------
  Compressibility (1/GPa) = *************
-------------------------------------------------------------------------------
  Stress axis :                     x             y             z
-------------------------------------------------------------------------------
  Youngs Moduli (GPa)     =      80.33928      -0.00081      -0.00081
-------------------------------------------------------------------------------
  Poissons Ratio (x)      =                    -0.00000      -0.00000
  Poissons Ratio (y)      =       0.29337                    -0.00010
  Poissons Ratio (z)      =       0.29337      -0.00010
-------------------------------------------------------------------------------


  Piezoelectric Strain Matrix: (Units=C/m**2)

-------------------------------------------------------------------------------
  Indices      1         2         3         4         5         6    
-------------------------------------------------------------------------------
       x    -0.00000  -0.00000  -0.00000  -0.00000   0.00000   0.00000
       y     0.00000   0.00000   0.00000   0.00000  -0.00000  -0.00000
       z     0.00000   0.00000   0.00000   0.00000  -0.00000  -0.00000
-------------------------------------------------------------------------------


  Piezoelectric Stress Matrix: (Units=10**-11 C/N)

-------------------------------------------------------------------------------
  Indices      1         2         3         4         5         6    
-------------------------------------------------------------------------------
       x    -0.00000   0.00000   0.00000   0.00000  -0.00000   0.00000
       y     0.00000  -0.00000  -0.00000  -0.00000  -0.00000  -0.00000
       z    -0.00000  -0.00000   0.00000   0.00000  -0.00000  -0.00000
-------------------------------------------------------------------------------


  Static dielectric constant tensor : 

-------------------------------------------------------------------------------
              x         y         z
-------------------------------------------------------------------------------
       x     1.04943  -0.00000  -0.00000
       y    -0.00000   1.30516   0.00000
       z    -0.00000   0.00000   1.30516
--------------------------------------------------------------------------------

  Static refractive indices : 

-------------------------------------------------------------------------------
    1 =    1.02442      2 =    1.14244      3 =    1.14244
-------------------------------------------------------------------------------


  Phonon Calculation : 

  Number of k points for this configuration =      147

--------------------------------------------------------------------------------
  K point      1 =  -0.500000  0.000000  0.000000  Weight =    0.007
--------------------------------------------------------------------------------

 Frequencies (cm-1) and Eigenvectors : 

 Frequency     152.3128            152.3128            189.1772
 IR Intensity    0.1645              0.1645              0.2500
    in X         0.0000              0.0000              0.0000
    in Y         0.1645              0.0000              0.0000
    in Z         0.0000              0.1645              0.2500
 Raman Intsty    0.0000              0.0000              0.0000

                Real    Imaginary   Real    Imaginary   Real    Imaginary

     1 x       0.000000  0.000000  0.000000 -0.000000  0.000000 -0.000000
     1 y       0.939173  0.343435 -0.002249 -0.000847  0.000000 -0.000000
     1 z       0.000279  0.002387  0.106452  0.994315 -0.000000 -0.000000
     2 x      -0.000000  0.000000 -0.000000  0.000000  0.000000 -0.000000
     2 y      -0.000000 -0.000000 -0.000000 -0.000000  0.000665  0.000000
     2 z       0.000000  0.000000  0.000000  0.000000  1.000000  0.000000


 Frequency     189.1772            775.7982            954.2934
 IR Intensity    0.2500              0.1645              0.2500
    in X         0.0000              0.1645              0.2500
    in Y         0.2500              0.0000              0.0000
    in Z         0.0000              0.0000              0.0000
 Raman Intsty    0.0000              0.0000              0.0000

                Real    Imaginary   Real    Imaginary   Real    Imaginary

     1 x      -0.000000  0.000000 -1.000000 -0.000000 -0.000000  0.000000
     1 y      -0.000000  0.000000  0.000000 -0.000000 -0.000000  0.000000
     1 z      -0.000000 -0.000000  0.000000  0.000000  0.000000  0.000000
     2 x      -0.000000 -0.000000 -0.000000 -0.000000  1.000000  0.000000
     2 y      -1.000000 -0.000000 -0.000000  0.000000 -0.000000  0.000000
     2 z       0.000665  0.000000  0.000000 -0.000000  0.000000  0.000000




--------------------------------------------------------------------------------
  K point      2 =  -0.489583  0.000000  0.000000  Weight =    0.007
--------------------------------------------------------------------------------

 Frequencies (cm-1) and Eigenvectors : 

 Frequency     151.2421            151.2421            190.3310
 IR Intensity    0.1003              0.1003              0.3142
    in X         0.0000              0.0000              0.0000
    in Y         0.0000              0.1003              0.3142
    in Z         0.1003              0.0000              0.0000
 Raman Intsty    0.0000              0.0000              0.0000

                Real    Imaginary   Real    Imaginary   Real    Imaginary

     1 x       0.000000 -0.000000 -0.000000  0.000000 -0.000000 -0.000000
     1 y      -0.002968 -0.000357 -0.978983 -0.117771  0.165249  0.020166
     1 z      -0.986041 -0.000000  0.002989  0.000000  0.000000  0.000000
     2 x       0.000000 -0.000000 -0.000000  0.000000 -0.000000 -0.000000
     2 y      -0.000501 -0.000060 -0.165282 -0.019883 -0.978785 -0.119445
     2 z      -0.166474  0.000000  0.000505  0.000000 -0.000000  0.000000


 Frequency     190.3310            774.7560            955.0230
 IR Intensity    0.3142              0.1367              0.2779
    in X         0.0000              0.1367              0.2779
    in Y         0.0000              0.0000              0.0000
    in Z         0.3142              0.0000              0.0000
 Raman Intsty    0.0000              0.0000              0.0000

                Real    Imaginary   Real    Imaginary   Real    Imaginary

     1 x      -0.000000 -0.000000  0.997550  0.000000  0.069955 -0.000000
     1 y       0.000000  0.000000  0.000000  0.000000  0.000000 -0.000000
     1 z       0.166474  0.000000  0.000000  0.000000 -0.000000 -0.000000
     2 x       0.000000  0.000000  0.069955  0.000000 -0.997550 -0.000000
     2 y       0.000000 -0.000000 -0.000000 -0.000000  0.000000  0.000000
     2 z      -0.986046  0.000000 -0.000000  0.000000 -0.000000  0.000000




--------------------------------------------------------------------------------
  K point      3 =  -0.479167  0.000000  0.000000  Weight =    0.007
--------------------------------------------------------------------------------

 Frequencies (cm-1) and Eigenvectors : 

 Frequency     148.3591            148.3591            193.4633
 IR Intensity    0.0568              0.0568              0.3578
    in X         0.0000              0.0000              0.0000
    in Y         0.0000              0.0568              0.3578
    in Z         0.0568              0.0000              0.0000
 Raman Intsty    0.0000              0.0000              0.0000

                Real    Imaginary   Real    Imaginary   Real    Imaginary

     1 x      -0.000000 -0.000000 -0.000000  0.000000 -0.000000  0.000000
     1 y       0.000000 -0.000000 -0.598482  0.743665  0.189803 -0.229686
     1 z      -0.954578 -0.000000 -0.000000  0.000000 -0.000000  0.000000
     2 x       0.000000  0.000000 -0.000000 -0.000000 -0.000000 -0.000000
     2 y       0.000000 -0.000000 -0.186810  0.232127 -0.608072  0.735845
     2 z      -0.297961  0.000000 -0.000000  0.000000 -0.000000  0.000000


 Frequency     193.4633            771.6815            957.1600
 IR Intensity    0.3578              0.1111              0.3034
    in X         0.0000              0.1111              0.3034
    in Y         0.0000              0.0000              0.0000
    in Z         0.3578              0.0000              0.0000
 Raman Intsty    0.0000              0.0000              0.0000

                Real    Imaginary   Real    Imaginary   Real    Imaginary

     1 x       0.000000  0.000000 -0.990584 -0.000000  0.136909  0.000000
     1 y       0.000000 -0.000000  0.000000 -0.000000 -0.000000  0.000000
     1 z      -0.297961 -0.000000  0.000000  0.000000 -0.000000 -0.000000
     2 x      -0.000000 -0.000000 -0.136909  0.000000 -0.990584 -0.000000
     2 y       0.000000  0.000000  0.000000 -0.000000 -0.000000 -0.000000
     2 z       0.954578  0.000000  0.000000  0.000000 -0.000000  0.000000




--------------------------------------------------------------------------------
  K point      4 =  -0.468750  0.000000  0.000000  Weight =    0.007
--------------------------------------------------------------------------------

 Frequencies (cm-1) and Eigenvectors : 

 Frequency     144.2993            144.2993            197.9382
 IR Intensity    0.0320              0.0320              0.3825
    in X         0.0000              0.0000              0.0000
    in Y         0.0000              0.0320              0.0000
    in Z         0.0320              0.0000              0.3825
 Raman Intsty    0.0000              0.0000              0.0000

                Real    Imaginary   Real    Imaginary   Real    Imaginary

     1 x      -0.000000  0.000000  0.000000 -0.000000  0.000000  0.000000
     1 y      -0.007306 -0.000000  0.921096  0.000000  0.000003  0.000000
     1 z      -0.921096 -0.000000 -0.007306 -0.000000 -0.389268 -0.000000
     2 x      -0.000000 -0.000000  0.000000  0.000000 -0.000000  0.000000
     2 y      -0.003087 -0.000000  0.389255  0.000000 -0.000007 -0.000000
     2 z      -0.389255  0.000000 -0.003087  0.000000  0.921125  0.000000


 Frequency     197.9382            766.7169            960.5624
 IR Intensity    0.3825              0.0890              0.3256
    in X         0.0000              0.0890              0.3256
    in Y         0.3825              0.0000              0.0000
    in Z         0.0000              0.0000              0.0000
 Raman Intsty    0.0000              0.0000              0.0000

                Real    Imaginary   Real    Imaginary   Real    Imaginary

     1 x       0.000000 -0.000000 -0.980092 -0.000000 -0.198543  0.000000
     1 y      -0.389268 -0.000000 -0.000000 -0.000000 -0.000000  0.000000
     1 z      -0.000003 -0.000000 -0.000000 -0.000000 -0.000000 -0.000000
     2 x       0.000000 -0.000000 -0.198543 -0.000000  0.980092  0.000000
     2 y       0.921125  0.000000 -0.000000  0.000000  0.000000  0.000000
     2 z       0.000007  0.000000  0.000000  0.000000  0.000000  0.000000




--------------------------------------------------------------------------------
  K point      5 =  -0.458333  0.000000  0.000000  Weight =    0.007
--------------------------------------------------------------------------------

 Frequencies (cm-1) and Eigenvectors : 

 Frequency     139.5726            139.5726            203.2448
 IR Intensity    0.0187              0.0187              0.3959
    in X         0.0000              0.0000              0.0000
    in Y         0.0000              0.0187              0.0000
    in Z         0.0187              0.0000              0.3959
 Raman Intsty    0.0000              0.0000              0.0000

                Real    Imaginary   Real    Imaginary   Real    Imaginary

     1 x      -0.000000 -0.000000 -0.000000  0.000000  0.000000 -0.000000
     1 y      -0.007962 -0.000000  0.892550  0.000000  0.002085  0.000000
     1 z      -0.892550 -0.000000 -0.007962 -0.000000 -0.450874 -0.000000
     2 x      -0.000000  0.000000 -0.000000 -0.000000 -0.000000 -0.000000
     2 y      -0.004022 -0.000000  0.450861  0.000000 -0.004128 -0.000000
     2 z      -0.450861  0.000000 -0.004022  0.000000  0.892575  0.000000


 Frequency     203.2448            760.0614            965.0322
 IR Intensity    0.3959              0.0705              0.3440
    in X         0.0000              0.0705              0.3440
    in Y         0.3959              0.0000              0.0000
    in Z         0.0000              0.0000              0.0000
 Raman Intsty    0.0000              0.0000              0.0000

                Real    Imaginary   Real    Imaginary   Real    Imaginary

     1 x      -0.000000  0.000000 -0.967322 -0.000000 -0.253552  0.000000
     1 y      -0.450874 -0.000000 -0.000000  0.000000  0.000000 -0.000000
     1 z      -0.002085 -0.000000 -0.000000  0.000000 -0.000000 -0.000000
     2 x       0.000000  0.000000 -0.253552 -0.000000  0.967322  0.000000
     2 y       0.892575  0.000000  0.000000 -0.000000 -0.000000 -0.000000
     2 z       0.004128  0.000000  0.000000  0.000000  0.000000  0.000000




--------------------------------------------------------------------------------
  K point      6 =  -0.447917  0.000000  0.000000  Weight =    0.007
--------------------------------------------------------------------------------

 Frequencies (cm-1) and Eigenvectors : 

 Frequency     134.4890            134.4890            209.0720
 IR Intensity    0.0113              0.0113              0.4033
    in X         0.0000              0.0000              0.0000
    in Y         0.0000              0.0113              0.0000
    in Z         0.0113              0.0000              0.4033
 Raman Intsty    0.0000              0.0000              0.0000

                Real    Imaginary   Real    Imaginary   Real    Imaginary

     1 x      -0.000000  0.000000 -0.000000  0.000000  0.000000  0.000000
     1 y       0.000000  0.000000  0.538029  0.683565  0.000000  0.000000
     1 z       0.869906  0.000000  0.000000  0.000000 -0.493217 -0.000000
     2 x       0.000000  0.000000 -0.000000  0.000000 -0.000000 -0.000000
     2 y       0.000000  0.000000  0.305050  0.387566  0.000000  0.000000
     2 z       0.493217  0.000000 -0.000000  0.000000  0.869906  0.000000


 Frequency     209.0720            751.9333            970.3521
 IR Intensity    0.4033              0.0557              0.3589
    in X         0.0000              0.0557              0.3589
    in Y         0.4033              0.0000              0.0000
    in Z         0.0000              0.0000              0.0000
 Raman Intsty    0.0000              0.0000              0.0000

                Real    Imaginary   Real    Imaginary   Real    Imaginary

     1 x      -0.000000 -0.000000 -0.953437 -0.000000  0.301591 -0.000000
     1 y       0.286439  0.401517 -0.000000 -0.000000 -0.000000 -0.000000
     1 z       0.000000  0.000000 -0.000000 -0.000000  0.000000  0.000000
     2 x      -0.000000 -0.000000 -0.301591 -0.000000 -0.953437 -0.000000
     2 y      -0.505204 -0.708171  0.000000  0.000000  0.000000  0.000000
     2 z       0.000000  0.000000 -0.000000  0.000000  0.000000  0.000000




--------------------------------------------------------------------------------
  K point      7 =  -0.437500  0.000000  0.000000  Weight =    0.007
--------------------------------------------------------------------------------

 Frequencies (cm-1) and Eigenvectors : 

 Frequency     129.2249            129.2249            215.2418
 IR Intensity    0.0071              0.0071              0.4075
    in X         0.0000              0.0000              0.0000
    in Y         0.0000              0.0071              0.0000
    in Z         0.0071              0.0000              0.4075
 Raman Intsty    0.0000              0.0000              0.0000

                Real    Imaginary   Real    Imaginary   Real    Imaginary

     1 x      -0.000000 -0.000000 -0.000000  0.000000  0.000000  0.000000
     1 y       0.012576 -0.000000 -0.852093  0.000000  0.000111 -0.000000
     1 z       0.852093 -0.000000  0.012576 -0.000000 -0.523240  0.000000
     2 x      -0.000000  0.000000 -0.000000 -0.000000  0.000000  0.000000
     2 y       0.007722 -0.000000 -0.523183  0.000000 -0.000181  0.000000
     2 z       0.523183 -0.000000  0.007722  0.000000  0.852186  0.000000


 Frequency     215.2418            742.5424            976.3140
 IR Intensity    0.4075              0.0439              0.3706
    in X         0.0000              0.0439              0.3706
    in Y         0.4075              0.0000              0.0000
    in Z         0.0000              0.0000              0.0000
 Raman Intsty    0.0000              0.0000              0.0000

                Real    Imaginary   Real    Imaginary   Real    Imaginary

     1 x       0.000000 -0.000000 -0.939341  0.000000 -0.342986 -0.000000
     1 y      -0.523240  0.000000 -0.000000 -0.000000  0.000000  0.000000
     1 z      -0.000111  0.000000  0.000000 -0.000000 -0.000000  0.000000
     2 x       0.000000 -0.000000 -0.342986  0.000000  0.939341 -0.000000
     2 y       0.852186 -0.000000 -0.000000  0.000000  0.000000  0.000000
     2 z       0.000181  0.000000  0.000000  0.000000 -0.000000  0.000000




--------------------------------------------------------------------------------
  K point      8 =  -0.427083  0.000000  0.000000  Weight =    0.007
--------------------------------------------------------------------------------

 Frequencies (cm-1) and Eigenvectors : 

 Frequency     123.8826            123.8826            221.6501
 IR Intensity    0.0045              0.0045              0.4100
    in X         0.0000              0.0000              0.0000
    in Y         0.0045              0.0000              0.0000
    in Z         0.0000              0.0045              0.4100
 Raman Intsty    0.0000              0.0000              0.0000

                Real    Imaginary   Real    Imaginary   Real    Imaginary

     1 x       0.000000  0.000000  0.000000 -0.000000  0.000000  0.000000
     1 y      -0.430723  0.719185 -0.000000  0.000000  0.000000 -0.000000
     1 z       0.000000  0.000000 -0.838301 -0.000000 -0.545207 -0.000000
     2 x       0.000000  0.000000 -0.000000 -0.000000 -0.000000  0.000000
     2 y      -0.280130  0.467737  0.000000  0.000000  0.000000  0.000000
     2 z       0.000000  0.000000 -0.545207  0.000000  0.838301  0.000000


 Frequency     221.6501            732.0741            982.7342
 IR Intensity    0.4100              0.0347              0.3798
    in X         0.0000              0.0347              0.3798
    in Y         0.4100              0.0000              0.0000
    in Z         0.0000              0.0000              0.0000
 Raman Intsty    0.0000              0.0000              0.0000

                Real    Imaginary   Real    Imaginary   Real    Imaginary

     1 x      -0.000000  0.000000 -0.925636 -0.000000 -0.378416  0.000000
     1 y       0.273967 -0.471373  0.000000  0.000000 -0.000000 -0.000000
     1 z       0.000000  0.000000  0.000000  0.000000 -0.000000 -0.000000
     2 x      -0.000000  0.000000 -0.378416 -0.000000  0.925636  0.000000
     2 y      -0.421248  0.724776  0.000000 -0.000000  0.000000 -0.000000
     2 z      -0.000000  0.000000  0.000000  0.000000 -0.000000  0.000000




--------------------------------------------------------------------------------
  K point      9 =  -0.416667  0.000000  0.000000  Weight =    0.007
--------------------------------------------------------------------------------

 Frequencies (cm-1) and Eigenvectors : 

 Frequency     118.5238            118.5238            228.2330
 IR Intensity    0.0030              0.0030              0.4115
    in X         0.0000              0.0000              0.0000
    in Y         0.0000              0.0030              0.4115
    in Z         0.0030              0.0000              0.0000
 Raman Intsty    0.0000              0.0000              0.0000

                Real    Imaginary   Real    Imaginary   Real    Imaginary

     1 x       0.000000 -0.000000 -0.000000  0.000000 -0.000000 -0.000000
     1 y      -0.000000 -0.000000  0.639346  0.525070  0.426556  0.365497
     1 z      -0.827322  0.000000 -0.000000  0.000000  0.000000  0.000000
     2 x      -0.000000  0.000000 -0.000000  0.000000  0.000000 -0.000000
     2 y       0.000000 -0.000000  0.434098  0.356508 -0.628239 -0.538310
     2 z      -0.561728  0.000000 -0.000000  0.000000 -0.000000  0.000000


 Frequency     228.2330            720.6850            989.4585
 IR Intensity    0.4115              0.0275              0.3870
    in X         0.0000              0.0275              0.3870
    in Y         0.0000              0.0000              0.0000
    in Z         0.4115              0.0000              0.0000
 Raman Intsty    0.0000              0.0000              0.0000

                Real    Imaginary   Real    Imaginary   Real    Imaginary

     1 x      -0.000000 -0.000000 -0.912676 -0.000000 -0.408685  0.000000
     1 y       0.000000  0.000000 -0.000000  0.000000 -0.000000 -0.000000
     1 z      -0.561728  0.000000  0.000000 -0.000000  0.000000 -0.000000
     2 x      -0.000000 -0.000000 -0.408685 -0.000000  0.912676  0.000000
     2 y       0.000000 -0.000000  0.000000 -0.000000 -0.000000 -0.000000
     2 z       0.827322  0.000000 -0.000000  0.000000  0.000000  0.000000




--------------------------------------------------------------------------------
  K point     10 =  -0.406250  0.000000  0.000000  Weight =    0.007
--------------------------------------------------------------------------------

 Frequencies (cm-1) and Eigenvectors : 

 Frequency     113.1881            113.1881            234.9483
 IR Intensity    0.0020              0.0020              0.4125
    in X         0.0000              0.0000              0.0000
    in Y         0.0000              0.0020              0.0000
    in Z         0.0020              0.0000              0.4125
 Raman Intsty    0.0000              0.0000              0.0000

                Real    Imaginary   Real    Imaginary   Real    Imaginary

     1 x       0.000000  0.000000  0.000000 -0.000000  0.000000 -0.000000
     1 y      -0.008744  0.000000  0.818499 -0.000000 -0.000100  0.000000
     1 z       0.818499 -0.000000  0.008744 -0.000000 -0.574442  0.000000
     2 x       0.000000  0.000000  0.000000 -0.000000  0.000000 -0.000000
     2 y      -0.006136 -0.000000  0.574409  0.000000  0.000142  0.000000
     2 z       0.574409 -0.000000  0.006136  0.000000  0.818546  0.000000


 Frequency     234.9483            708.5035            996.3613
 IR Intensity    0.4125              0.0219              0.3926
    in X         0.0000              0.0219              0.3926
    in Y         0.4125              0.0000              0.0000
    in Z         0.0000              0.0000              0.0000
 Raman Intsty    0.0000              0.0000              0.0000

                Real    Imaginary   Real    Imaginary   Real    Imaginary

     1 x      -0.000000  0.000000 -0.900632 -0.000000 -0.434582  0.000000
     1 y       0.574442 -0.000000  0.000000  0.000000  0.000000  0.000000
     1 z      -0.000100  0.000000 -0.000000  0.000000 -0.000000  0.000000
     2 x      -0.000000  0.000000 -0.434582 -0.000000  0.900632  0.000000
     2 y      -0.818546 -0.000000  0.000000  0.000000 -0.000000 -0.000000
     2 z       0.000142  0.000000 -0.000000  0.000000  0.000000  0.000000




--------------------------------------------------------------------------------
  K point     11 =  -0.395833  0.000000  0.000000  Weight =    0.007
--------------------------------------------------------------------------------

 Frequencies (cm-1) and Eigenvectors : 

 Frequency     107.9016            107.9016            241.7666
 IR Intensity    0.0014              0.0014              0.4132
    in X         0.0000              0.0000              0.0000
    in Y         0.0000              0.0014              0.4132
    in Z         0.0014              0.0000              0.0000
 Raman Intsty    0.0000              0.0000              0.0000

                Real    Imaginary   Real    Imaginary   Real    Imaginary

     1 x       0.000000 -0.000000  0.000000  0.000000 -0.000000  0.000000
     1 y      -0.006646 -0.000000  0.811430  0.000000 -0.584411 -0.000000
     1 z      -0.811430 -0.000000 -0.006646 -0.000000 -0.000098 -0.000000
     2 x       0.000000 -0.000000  0.000000  0.000000 -0.000000  0.000000
     2 y      -0.004787 -0.000000  0.584392  0.000000  0.811457  0.000000
     2 z      -0.584392  0.000000 -0.004787  0.000000  0.000136  0.000000


 Frequency     241.7666            695.6332           1003.3420
 IR Intensity    0.4132              0.0175              0.3970
    in X         0.0000              0.0175              0.3970
    in Y         0.0000              0.0000              0.0000
    in Z         0.4132              0.0000              0.0000
 Raman Intsty    0.0000              0.0000              0.0000

                Real    Imaginary   Real    Imaginary   Real    Imaginary

     1 x       0.000000 -0.000000 -0.889561  0.000000 -0.456817 -0.000000
     1 y       0.000098  0.000000 -0.000000  0.000000 -0.000000 -0.000000
     1 z      -0.584411 -0.000000 -0.000000 -0.000000 -0.000000  0.000000
     2 x       0.000000 -0.000000 -0.456817  0.000000  0.889561 -0.000000
     2 y      -0.000136 -0.000000 -0.000000 -0.000000  0.000000  0.000000
     2 z       0.811457  0.000000  0.000000  0.000000  0.000000  0.000000




--------------------------------------------------------------------------------
  K point     12 =  -0.385417  0.000000  0.000000  Weight =    0.007
--------------------------------------------------------------------------------

 Frequencies (cm-1) and Eigenvectors : 

 Frequency     102.6831            102.6831            248.6662
 IR Intensity    0.0009              0.0009              0.4136
    in X         0.0000              0.0000              0.0000
    in Y         0.0000              0.0009              0.0002
    in Z         0.0009              0.0000              0.4134
 Raman Intsty    0.0000              0.0000              0.0000

                Real    Imaginary   Real    Imaginary   Real    Imaginary

     1 x       0.000000 -0.000000 -0.000000  0.000000  0.000000 -0.000000
     1 y      -0.017278 -0.000000  0.805494  0.000000 -0.014057 -0.000000
     1 z      -0.805494 -0.000000 -0.017278 -0.000000 -0.592185 -0.000000
     2 x      -0.000000 -0.000000  0.000000  0.000000  0.000000  0.000000
     2 y      -0.012703  0.000000  0.592215 -0.000000  0.019119 -0.000000
     2 z      -0.592215  0.000000 -0.012703  0.000000  0.805453  0.000000


 Frequency     248.6662            682.1578           1010.3203
 IR Intensity    0.4136              0.0141              0.4004
    in X         0.0000              0.0141              0.4004
    in Y         0.4134              0.0000              0.0000
    in Z         0.0002              0.0000              0.0000
 Raman Intsty    0.0000              0.0000              0.0000

                Real    Imaginary   Real    Imaginary   Real    Imaginary

     1 x       0.000000 -0.000000 -0.879447 -0.000000 -0.475997  0.000000
     1 y      -0.592185 -0.000000 -0.000000 -0.000000  0.000000 -0.000000
     1 z       0.014057  0.000000  0.000000  0.000000 -0.000000 -0.000000
     2 x       0.000000  0.000000 -0.475997 -0.000000  0.879447  0.000000
     2 y       0.805453 -0.000000 -0.000000 -0.000000 -0.000000  0.000000
     2 z      -0.019119  0.000000  0.000000  0.000000  0.000000  0.000000




--------------------------------------------------------------------------------
  K point     13 =  -0.375000  0.000000  0.000000  Weight =    0.007
--------------------------------------------------------------------------------

 Frequencies (cm-1) and Eigenvectors : 

 Frequency      97.5460             97.5460            255.6296
 IR Intensity    0.0007              0.0007              0.4139
    in X         0.0000              0.0000              0.0000
    in Y         0.0007              0.0000              0.0000
    in Z         0.0000              0.0007              0.4139
 Raman Intsty    0.0000              0.0000              0.0000

                Real    Imaginary   Real    Imaginary   Real    Imaginary

     1 x       0.000000  0.000000 -0.000000 -0.000000 -0.000000  0.000000
     1 y       0.792076 -0.118775 -0.000000  0.000000 -0.000000  0.000000
     1 z       0.000000  0.000000 -0.800932  0.000000  0.598755 -0.000000
     2 x       0.000000  0.000000  0.000000 -0.000000 -0.000000  0.000000
     2 y       0.592134 -0.088793 -0.000000  0.000000  0.000000 -0.000000
     2 z      -0.000000  0.000000 -0.598755  0.000000 -0.800932  0.000000


 Frequency     255.6296            668.1447           1017.2329
 IR Intensity    0.4139              0.0114              0.4032
    in X         0.0000              0.0114              0.4032
    in Y         0.4139              0.0000              0.0000
    in Z         0.0000              0.0000              0.0000
 Raman Intsty    0.0000              0.0000              0.0000

                Real    Imaginary   Real    Imaginary   Real    Imaginary

     1 x       0.000000 -0.000000  0.870239 -0.000000 -0.492629 -0.000000
     1 y       0.591647 -0.091987 -0.000000 -0.000000 -0.000000 -0.000000
     1 z       0.000000  0.000000 -0.000000  0.000000  0.000000 -0.000000
     2 x       0.000000 -0.000000  0.492629 -0.000000  0.870239 -0.000000
     2 y      -0.791424  0.123048  0.000000  0.000000  0.000000 -0.000000
     2 z      -0.000000  0.000000 -0.000000  0.000000  0.000000  0.000000




--------------------------------------------------------------------------------
  K point     14 =  -0.364583  0.000000  0.000000  Weight =    0.007
--------------------------------------------------------------------------------

 Frequencies (cm-1) and Eigenvectors : 

 Frequency      92.5005             92.5005            262.6424
 IR Intensity    0.0005              0.0005              0.4141
    in X         0.0000              0.0000              0.0000
    in Y         0.0000              0.0004              0.0018
    in Z         0.0004              0.0000              0.4123
 Raman Intsty    0.0000              0.0000              0.0000

                Real    Imaginary   Real    Imaginary   Real    Imaginary

     1 x      -0.000000 -0.000000  0.000000  0.000000  0.000000  0.000000
     1 y      -0.136713 -0.000000  0.785192  0.000000  0.039499  0.000000
     1 z      -0.785192 -0.000000 -0.136713 -0.000000 -0.602680 -0.000000
     2 x      -0.000000 -0.000000 -0.000000  0.000000  0.000000  0.000000
     2 y      -0.103602  0.000000  0.595021 -0.000000 -0.052123  0.000000
     2 z      -0.595021  0.000000 -0.103602  0.000000  0.795299 -0.000000


 Frequency     262.6424            653.6489           1024.0292
 IR Intensity    0.4141              0.0092              0.4053
    in X         0.0000              0.0092              0.4053
    in Y         0.4123              0.0000              0.0000
    in Z         0.0018              0.0000              0.0000
 Raman Intsty    0.0000              0.0000              0.0000

                Real    Imaginary   Real    Imaginary   Real    Imaginary

     1 x      -0.000000 -0.000000  0.861868 -0.000000  0.507132  0.000000
     1 y      -0.602680 -0.000000 -0.000000  0.000000 -0.000000 -0.000000
     1 z      -0.039499 -0.000000  0.000000 -0.000000  0.000000 -0.000000
     2 x       0.000000 -0.000000  0.507132 -0.000000 -0.861868  0.000000
     2 y       0.795299 -0.000000 -0.000000 -0.000000 -0.000000 -0.000000
     2 z       0.052123  0.000000 -0.000000  0.000000 -0.000000  0.000000




--------------------------------------------------------------------------------
  K point     15 =  -0.354167  0.000000  0.000000  Weight =    0.007
--------------------------------------------------------------------------------

 Frequencies (cm-1) and Eigenvectors : 

 Frequency      87.5548             87.5548            269.6918
 IR Intensity    0.0003              0.0003              0.4142
    in X         0.0000              0.0000              0.0000
    in Y         0.0003              0.0000              0.0000
    in Z         0.0000              0.0003              0.4142
 Raman Intsty    0.0000              0.0000              0.0000

                Real    Imaginary   Real    Imaginary   Real    Imaginary

     1 x       0.000000 -0.000000 -0.000000  0.000000  0.000000 -0.000000
     1 y       0.793267  0.000000 -0.027342 -0.000000 -0.000021 -0.000000
     1 z      -0.027342 -0.000000 -0.793267 -0.000000 -0.608260 -0.000000
     2 x       0.000000 -0.000000 -0.000000  0.000000  0.000000 -0.000000
     2 y       0.607899  0.000000 -0.020953 -0.000000  0.000028  0.000000
     2 z      -0.020953  0.000000 -0.607899  0.000000  0.793738 -0.000000


 Frequency     269.6918            638.7154           1030.6690
 IR Intensity    0.4142              0.0075              0.4070
    in X         0.0000              0.0075              0.4070
    in Y         0.4142              0.0000              0.0000
    in Z         0.0000              0.0000              0.0000
 Raman Intsty    0.0000              0.0000              0.0000

                Real    Imaginary   Real    Imaginary   Real    Imaginary

     1 x      -0.000000  0.000000  0.854259 -0.000000 -0.519847 -0.000000
     1 y       0.608260  0.000000  0.000000 -0.000000 -0.000000  0.000000
     1 z      -0.000021 -0.000000  0.000000  0.000000 -0.000000  0.000000
     2 x      -0.000000  0.000000  0.519847 -0.000000  0.854259 -0.000000
     2 y      -0.793738 -0.000000 -0.000000 -0.000000 -0.000000 -0.000000
     2 z       0.000028  0.000000 -0.000000  0.000000  0.000000  0.000000




--------------------------------------------------------------------------------
  K point     16 =  -0.343750  0.000000  0.000000  Weight =    0.007
--------------------------------------------------------------------------------

 Frequencies (cm-1) and Eigenvectors : 

 Frequency      82.7153             82.7153            276.7662
 IR Intensity    0.0002              0.0002              0.4143
    in X         0.0000              0.0000              0.0000
    in Y         0.0000              0.0002              0.0005
    in Z         0.0002              0.0000              0.4138
 Raman Intsty    0.0000              0.0000              0.0000

                Real    Imaginary   Real    Imaginary   Real    Imaginary

     1 x      -0.000000  0.000000 -0.000000  0.000000  0.000000  0.000000
     1 y      -0.038147 -0.000000 -0.790087 -0.000000 -0.021672 -0.000000
     1 z       0.790087  0.000000 -0.038147 -0.000000 -0.611423 -0.000000
     2 x      -0.000000  0.000000 -0.000000  0.000000 -0.000000 -0.000000
     2 y      -0.029505  0.000000 -0.611095  0.000000  0.028020 -0.000000
     2 z       0.611095  0.000000 -0.029505  0.000000  0.790511  0.000000


 Frequency     276.7662            623.3817           1037.1204
 IR Intensity    0.4143              0.0061              0.4084
    in X         0.0000              0.0061              0.4084
    in Y         0.4138              0.0000              0.0000
    in Z         0.0005              0.0000              0.0000
 Raman Intsty    0.0000              0.0000              0.0000

                Real    Imaginary   Real    Imaginary   Real    Imaginary

     1 x      -0.000000  0.000000  0.847337 -0.000000  0.531055  0.000000
     1 y      -0.611423 -0.000000 -0.000000 -0.000000  0.000000 -0.000000
     1 z       0.021672  0.000000  0.000000 -0.000000  0.000000 -0.000000
     2 x      -0.000000 -0.000000  0.531055 -0.000000 -0.847337  0.000000
     2 y       0.790511 -0.000000 -0.000000 -0.000000  0.000000  0.000000
     2 z      -0.028020  0.000000 -0.000000  0.000000 -0.000000  0.000000




--------------------------------------------------------------------------------
  K point     17 =  -0.333333  0.000000  0.000000  Weight =    0.007
--------------------------------------------------------------------------------

 Frequencies (cm-1) and Eigenvectors : 

 Frequency      77.9874             77.9874            283.8544
 IR Intensity    0.0002              0.0002              0.4144
    in X         0.0000              0.0000              0.0000
    in Y         0.0000              0.0002              0.0000
    in Z         0.0002              0.0000              0.4144
 Raman Intsty    0.0000              0.0000              0.0000

                Real    Imaginary   Real    Imaginary   Real    Imaginary

     1 x      -0.000000  0.000000  0.000000  0.000000  0.000000 -0.000000
     1 y      -0.000000 -0.000000 -0.787166 -0.049427  0.000000  0.000000
     1 z      -0.788716 -0.000000  0.000000  0.000000  0.614758  0.000000
     2 x      -0.000000  0.000000  0.000000  0.000000 -0.000000 -0.000000
     2 y       0.000000 -0.000000 -0.613549 -0.038525  0.000000 -0.000000
     2 z      -0.614758  0.000000  0.000000  0.000000 -0.788716  0.000000


 Frequency     283.8544            607.6792           1043.3579
 IR Intensity    0.4144              0.0050              0.4095
    in X         0.0000              0.0050              0.4095
    in Y         0.4144              0.0000              0.0000
    in Z         0.0000              0.0000              0.0000
 Raman Intsty    0.0000              0.0000              0.0000

                Real    Imaginary   Real    Imaginary   Real    Imaginary

     1 x      -0.000000 -0.000000  0.841033 -0.000000  0.540983  0.000000
     1 y       0.613343  0.041678  0.000000 -0.000000  0.000000 -0.000000
     1 z       0.000000  0.000000 -0.000000 -0.000000  0.000000  0.000000
     2 x       0.000000 -0.000000  0.540983 -0.000000 -0.841033  0.000000
     2 y      -0.786901 -0.053472 -0.000000 -0.000000  0.000000  0.000000
     2 z       0.000000  0.000000 -0.000000  0.000000 -0.000000  0.000000




--------------------------------------------------------------------------------
  K point     18 =  -0.322917  0.000000  0.000000  Weight =    0.007
--------------------------------------------------------------------------------

 Frequencies (cm-1) and Eigenvectors : 

 Frequency      73.3758             73.3758            290.9458
 IR Intensity    0.0001              0.0001              0.4144
    in X         0.0000              0.0000              0.0000
    in Y         0.0000              0.0001              0.0000
    in Z         0.0001              0.0000              0.4144
 Raman Intsty    0.0000              0.0000              0.0000

                Real    Imaginary   Real    Imaginary   Real    Imaginary

     1 x      -0.000000 -0.000000 -0.000000 -0.000000  0.000000  0.000000
     1 y      -0.000000 -0.000000 -0.784809 -0.055774  0.000000  0.000000
     1 z      -0.786788 -0.000000  0.000000  0.000000  0.617223  0.000000
     2 x      -0.000000 -0.000000 -0.000000 -0.000000 -0.000000  0.000000
     2 y      -0.000000 -0.000000 -0.615670 -0.043753  0.000000 -0.000000
     2 z      -0.617223  0.000000  0.000000  0.000000 -0.786788  0.000000


 Frequency     290.9458            591.6349           1049.3613
 IR Intensity    0.4144              0.0041              0.4105
    in X         0.0000              0.0041              0.4105
    in Y         0.4144              0.0000              0.0000
    in Z         0.0000              0.0000              0.0000
 Raman Intsty    0.0000              0.0000              0.0000

                Real    Imaginary   Real    Imaginary   Real    Imaginary

     1 x      -0.000000 -0.000000  0.835284  0.000000  0.549819 -0.000000
     1 y       0.615445  0.046812  0.000000 -0.000000  0.000000 -0.000000
     1 z       0.000000  0.000000 -0.000000 -0.000000 -0.000000 -0.000000
     2 x       0.000000 -0.000000  0.549819  0.000000 -0.835284 -0.000000
     2 y      -0.784522 -0.059672 -0.000000 -0.000000 -0.000000  0.000000
     2 z       0.000000  0.000000 -0.000000  0.000000  0.000000  0.000000




--------------------------------------------------------------------------------
  K point     19 =  -0.312500  0.000000  0.000000  Weight =    0.007
--------------------------------------------------------------------------------

 Frequencies (cm-1) and Eigenvectors : 

 Frequency      68.8843             68.8843            298.0296
 IR Intensity    0.0001              0.0001              0.4145
    in X         0.0000              0.0000              0.0000
    in Y         0.0000              0.0001              0.0000
    in Z         0.0001              0.0000              0.4145
 Raman Intsty    0.0000              0.0000              0.0000

                Real    Imaginary   Real    Imaginary   Real    Imaginary

     1 x       0.000000 -0.000000 -0.000000  0.000000 -0.000000  0.000000
     1 y      -0.000000  0.000000 -0.767226  0.166868 -0.000000  0.000000
     1 z      -0.785163  0.000000  0.000000  0.000000  0.619289 -0.000000
     2 x      -0.000000 -0.000000 -0.000000  0.000000  0.000000  0.000000
     2 y       0.000000  0.000000 -0.605142  0.131616  0.000000 -0.000000
     2 z      -0.619289  0.000000  0.000000  0.000000 -0.785163  0.000000


 Frequency     298.0296            575.2719           1055.1145
 IR Intensity    0.4145              0.0033              0.4112
    in X         0.0000              0.0033              0.4112
    in Y         0.4145              0.0000              0.0000
    in Z         0.0000              0.0000              0.0000
 Raman Intsty    0.0000              0.0000              0.0000

                Real    Imaginary   Real    Imaginary   Real    Imaginary

     1 x      -0.000000  0.000000  0.830030  0.000000  0.557719 -0.000000
     1 y       0.602782 -0.142034  0.000000 -0.000000  0.000000  0.000000
     1 z       0.000000  0.000000 -0.000000  0.000000 -0.000000  0.000000
     2 x      -0.000000  0.000000  0.557719  0.000000 -0.830030 -0.000000
     2 y      -0.764234  0.180077 -0.000000  0.000000 -0.000000  0.000000
     2 z      -0.000000  0.000000 -0.000000  0.000000  0.000000  0.000000




--------------------------------------------------------------------------------
  K point     20 =  -0.302083  0.000000  0.000000  Weight =    0.007
--------------------------------------------------------------------------------

 Frequencies (cm-1) and Eigenvectors : 

 Frequency      64.5165             64.5165            305.0952
 IR Intensity    0.0001              0.0001              0.4145
    in X         0.0000              0.0000              0.0000
    in Y         0.0000              0.0001              0.0000
    in Z         0.0001              0.0000              0.4145
 Raman Intsty    0.0000              0.0000              0.0000

                Real    Imaginary   Real    Imaginary   Real    Imaginary

     1 x      -0.000000 -0.000000  0.000000 -0.000000  0.000000  0.000000
     1 y       0.000000 -0.000000 -0.781891  0.054526  0.000000 -0.000000
     1 z      -0.783790  0.000000 -0.000000  0.000000 -0.621026  0.000000
     2 x       0.000000  0.000000  0.000000 -0.000000 -0.000000  0.000000
     2 y       0.000000 -0.000000 -0.619522  0.043203 -0.000000  0.000000
     2 z      -0.621026  0.000000 -0.000000  0.000000  0.783790  0.000000


 Frequency     305.0952            558.6106           1060.6051
 IR Intensity    0.4145              0.0027              0.4118
    in X         0.0000              0.0027              0.4118
    in Y         0.4145              0.0000              0.0000
    in Z         0.0000              0.0000              0.0000
 Raman Intsty    0.0000              0.0000              0.0000

                Real    Imaginary   Real    Imaginary   Real    Imaginary

     1 x      -0.000000  0.000000  0.825222 -0.000000  0.564808  0.000000
     1 y      -0.619698  0.040596 -0.000000 -0.000000  0.000000 -0.000000
     1 z      -0.000000  0.000000 -0.000000  0.000000  0.000000 -0.000000
     2 x      -0.000000  0.000000  0.564808 -0.000000 -0.825222  0.000000
     2 y       0.782113 -0.051236  0.000000 -0.000000 -0.000000  0.000000
     2 z       0.000000  0.000000 -0.000000  0.000000 -0.000000  0.000000




--------------------------------------------------------------------------------
  K point     21 =  -0.291667  0.000000  0.000000  Weight =    0.007
--------------------------------------------------------------------------------

 Frequencies (cm-1) and Eigenvectors : 

 Frequency      60.2753             60.2753            312.1315
 IR Intensity    0.0000              0.0000              0.4145
    in X         0.0000              0.0000              0.0000
    in Y         0.0000              0.0000              0.0002
    in Z         0.0000              0.0000              0.4143
 Raman Intsty    0.0000              0.0000              0.0000

                Real    Imaginary   Real    Imaginary   Real    Imaginary

     1 x       0.000000  0.000000 -0.000000 -0.000000  0.000000 -0.000000
     1 y       0.016857  0.000000 -0.782447 -0.000000  0.014654  0.000000
     1 z       0.782447  0.000000  0.016857  0.000000 -0.622317 -0.000000
     2 x      -0.000000  0.000000  0.000000 -0.000000 -0.000000 -0.000000
     2 y       0.013408 -0.000000 -0.622345  0.000000 -0.018424  0.000000
     2 z       0.622345  0.000000  0.013408  0.000000  0.782412  0.000000


 Frequency     312.1315            541.6690           1065.8238
 IR Intensity    0.4145              0.0022              0.4123
    in X         0.0000              0.0022              0.4123
    in Y         0.4143              0.0000              0.0000
    in Z         0.0002              0.0000              0.0000
 Raman Intsty    0.0000              0.0000              0.0000

                Real    Imaginary   Real    Imaginary   Real    Imaginary

     1 x      -0.000000  0.000000 -0.820814  0.000000 -0.571195 -0.000000
     1 y      -0.622317 -0.000000  0.000000 -0.000000  0.000000 -0.000000
     1 z      -0.014654 -0.000000 -0.000000 -0.000000 -0.000000 -0.000000
     2 x      -0.000000  0.000000 -0.571195  0.000000  0.820814 -0.000000
     2 y       0.782412 -0.000000 -0.000000 -0.000000  0.000000  0.000000
     2 z       0.018424  0.000000  0.000000  0.000000  0.000000 -0.000000




--------------------------------------------------------------------------------
  K point     22 =  -0.281250  0.000000  0.000000  Weight =    0.007
--------------------------------------------------------------------------------

 Frequencies (cm-1) and Eigenvectors : 

 Frequency      56.1637             56.1637            319.1272
 IR Intensity    0.0000              0.0000              0.4145
    in X         0.0000              0.0000              0.0000
    in Y         0.0000              0.0000              0.0015
    in Z         0.0000              0.0000              0.4130
 Raman Intsty    0.0000              0.0000              0.0000

                Real    Imaginary   Real    Imaginary   Real    Imaginary

     1 x      -0.000000 -0.000000 -0.000000 -0.000000  0.000000  0.000000
     1 y      -0.163047  0.000000 -0.764452  0.000000 -0.037449  0.000000
     1 z       0.764452 -0.000000 -0.163047  0.000000 -0.622597  0.000000
     2 x       0.000000  0.000000  0.000000  0.000000 -0.000000  0.000000
     2 y      -0.130105  0.000000 -0.610002  0.000000  0.046931 -0.000000
     2 z       0.610002  0.000000 -0.130105  0.000000  0.780236  0.000000


 Frequency     319.1272            524.4634           1070.7637
 IR Intensity    0.4145              0.0018              0.4127
    in X         0.0000              0.0018              0.4127
    in Y         0.4130              0.0000              0.0000
    in Z         0.0015              0.0000              0.0000
 Raman Intsty    0.0000              0.0000              0.0000

                Real    Imaginary   Real    Imaginary   Real    Imaginary

     1 x       0.000000  0.000000  0.816767  0.000000  0.576967 -0.000000
     1 y      -0.622597  0.000000  0.000000 -0.000000 -0.000000  0.000000
     1 z       0.037449 -0.000000  0.000000  0.000000  0.000000  0.000000
     2 x       0.000000  0.000000  0.576967  0.000000 -0.816767 -0.000000
     2 y       0.780236 -0.000000 -0.000000  0.000000 -0.000000  0.000000
     2 z      -0.046931  0.000000 -0.000000  0.000000 -0.000000  0.000000




--------------------------------------------------------------------------------
  K point     23 =  -0.270833  0.000000  0.000000  Weight =    0.007
--------------------------------------------------------------------------------

 Frequencies (cm-1) and Eigenvectors : 

 Frequency      52.1840             52.1840            326.0707
 IR Intensity    0.0000              0.0000              0.4145
    in X         0.0000              0.0000              0.0000
    in Y         0.0000              0.0000              0.0002
    in Z         0.0000              0.0000              0.4143
 Raman Intsty    0.0000              0.0000              0.0000

                Real    Imaginary   Real    Imaginary   Real    Imaginary

     1 x      -0.000000 -0.000000 -0.000000 -0.000000  0.000000  0.000000
     1 y       0.780177  0.000000  0.031562  0.000000  0.014827  0.000000
     1 z       0.031562  0.000000 -0.780177 -0.000000 -0.624587 -0.000000
     2 x      -0.000000 -0.000000 -0.000000 -0.000000 -0.000000  0.000000
     2 y       0.624252 -0.000000  0.025254 -0.000000 -0.018531  0.000000
     2 z       0.025254 -0.000000 -0.624252  0.000000  0.780595  0.000000


 Frequency     326.0707            507.0084           1075.4202
 IR Intensity    0.4145              0.0015              0.4130
    in X         0.0000              0.0015              0.4130
    in Y         0.4143              0.0000              0.0000
    in Z         0.0002              0.0000              0.0000
 Raman Intsty    0.0000              0.0000              0.0000

                Real    Imaginary   Real    Imaginary   Real    Imaginary

     1 x       0.000000  0.000000 -0.813045  0.000000 -0.582200 -0.000000
     1 y       0.624587  0.000000 -0.000000  0.000000 -0.000000  0.000000
     1 z       0.014827  0.000000 -0.000000 -0.000000 -0.000000 -0.000000
     2 x       0.000000  0.000000 -0.582200  0.000000  0.813045 -0.000000
     2 y      -0.780595  0.000000  0.000000  0.000000 -0.000000 -0.000000
     2 z      -0.018531  0.000000  0.000000  0.000000  0.000000 -0.000000




--------------------------------------------------------------------------------
  K point     24 =  -0.260417  0.000000  0.000000  Weight =    0.007
--------------------------------------------------------------------------------

 Frequencies (cm-1) and Eigenvectors : 

 Frequency      48.3386             48.3386            332.9498
 IR Intensity    0.0000              0.0000              0.4145
    in X         0.0000              0.0000              0.0000
    in Y         0.0000              0.0000              0.0001
    in Z         0.0000              0.0000              0.4145
 Raman Intsty    0.0000              0.0000              0.0000

                Real    Imaginary   Real    Imaginary   Real    Imaginary

     1 x       0.000000  0.000000 -0.000000  0.000000  0.000000 -0.000000
     1 y      -0.094212  0.000000 -0.774402  0.000000 -0.007157  0.000000
     1 z       0.774402 -0.000000 -0.094212  0.000000 -0.625599  0.000000
     2 x       0.000000  0.000000  0.000000  0.000000 -0.000000 -0.000000
     2 y      -0.075557 -0.000000 -0.621061 -0.000000  0.008924  0.000000
     2 z       0.621061 -0.000000 -0.075557  0.000000  0.780061  0.000000


 Frequency     332.9498            489.3177           1079.7909
 IR Intensity    0.4145              0.0012              0.4133
    in X         0.0000              0.0012              0.4133
    in Y         0.4145              0.0000              0.0000
    in Z         0.0001              0.0000              0.0000
 Raman Intsty    0.0000              0.0000              0.0000

                Real    Imaginary   Real    Imaginary   Real    Imaginary

     1 x       0.000000 -0.000000 -0.809618 -0.000000 -0.586957  0.000000
     1 y      -0.625599  0.000000 -0.000000  0.000000 -0.000000  0.000000
     1 z       0.007157 -0.000000 -0.000000  0.000000 -0.000000  0.000000
     2 x      -0.000000 -0.000000 -0.586957 -0.000000  0.809618  0.000000
     2 y       0.780061  0.000000  0.000000  0.000000  0.000000 -0.000000
     2 z      -0.008924  0.000000  0.000000  0.000000  0.000000 -0.000000




--------------------------------------------------------------------------------
  K point     25 =  -0.250000  0.000000  0.000000  Weight =    0.007
--------------------------------------------------------------------------------

 Frequencies (cm-1) and Eigenvectors : 

 Frequency      44.6296             44.6296            339.7517
 IR Intensity    0.0000              0.0000              0.4145
    in X         0.0000              0.0000              0.0000
    in Y         0.0000              0.0000              0.0000
    in Z         0.0000              0.0000              0.4145
 Raman Intsty    0.0000              0.0000              0.0000

                Real    Imaginary   Real    Imaginary   Real    Imaginary

     1 x      -0.000000  0.000000 -0.000000 -0.000000 -0.000000  0.000000
     1 y       0.000000  0.000000  0.779517  0.000061  0.004778  0.000000
     1 z      -0.779517  0.000000  0.000000  0.000000  0.626362 -0.000000
     2 x      -0.000000  0.000000 -0.000000 -0.000000  0.000000  0.000000
     2 y       0.000000  0.000000  0.626380  0.000049 -0.005946 -0.000000
     2 z      -0.626380  0.000000  0.000000  0.000000 -0.779495  0.000000


 Frequency     339.7517            471.4038           1083.8750
 IR Intensity    0.4145              0.0010              0.4136
    in X         0.0000              0.0010              0.4136
    in Y         0.4145              0.0000              0.0000
    in Z         0.0000              0.0000              0.0000
 Raman Intsty    0.0000              0.0000              0.0000

                Real    Imaginary   Real    Imaginary   Real    Imaginary

     1 x      -0.000000 -0.000000 -0.806459  0.000000  0.591291  0.000000
     1 y      -0.626362 -0.000051  0.000000  0.000000 -0.000000 -0.000000
     1 z       0.004778 -0.000000  0.000000 -0.000000  0.000000  0.000000
     2 x      -0.000000 -0.000000 -0.591291  0.000000 -0.806459  0.000000
     2 y       0.779495  0.000064 -0.000000 -0.000000  0.000000  0.000000
     2 z      -0.005946  0.000000  0.000000  0.000000 -0.000000  0.000000




--------------------------------------------------------------------------------
  K point     26 =  -0.239583  0.000000  0.000000  Weight =    0.007
--------------------------------------------------------------------------------

 Frequencies (cm-1) and Eigenvectors : 

 Frequency      41.0589             41.0589            346.4634
 IR Intensity    0.0000              0.0000              0.4145
    in X         0.0000              0.0000              0.0000
    in Y         0.0000              0.0000              0.0000
    in Z         0.0000              0.0000              0.4145
 Raman Intsty    0.0000              0.0000              0.0000

                Real    Imaginary   Real    Imaginary   Real    Imaginary

     1 x       0.000000  0.000000 -0.000000 -0.000000  0.000000 -0.000000
     1 y      -0.000000 -0.000000  0.779016  0.000284  0.000000  0.000000
     1 z      -0.779016 -0.000000 -0.000000  0.000000 -0.627004 -0.000000
     2 x      -0.000000 -0.000000 -0.000000 -0.000000 -0.000000 -0.000000
     2 y      -0.000000 -0.000000  0.627004  0.000228 -0.000000 -0.000000
     2 z      -0.627004  0.000000 -0.000000  0.000000  0.779016  0.000000


 Frequency     346.4634            453.2785           1087.6737
 IR Intensity    0.4145              0.0008              0.4137
    in X         0.0000              0.0008              0.4137
    in Y         0.4145              0.0000              0.0000
    in Z         0.0000              0.0000              0.0000
 Raman Intsty    0.0000              0.0000              0.0000

                Real    Imaginary   Real    Imaginary   Real    Imaginary

     1 x      -0.000000 -0.000000 -0.803543  0.000000 -0.595247 -0.000000
     1 y      -0.627004 -0.000253  0.000000  0.000000  0.000000  0.000000
     1 z      -0.000000  0.000000 -0.000000 -0.000000 -0.000000 -0.000000
     2 x       0.000000 -0.000000 -0.595247  0.000000  0.803543 -0.000000
     2 y       0.779016  0.000314 -0.000000 -0.000000 -0.000000 -0.000000
     2 z       0.000000  0.000000  0.000000  0.000000  0.000000  0.000000




--------------------------------------------------------------------------------
  K point     27 =  -0.229167  0.000000  0.000000  Weight =    0.007
--------------------------------------------------------------------------------

 Frequencies (cm-1) and Eigenvectors : 

 Frequency      37.6283             37.6283            353.0709
 IR Intensity    0.0000              0.0000              0.4145
    in X         0.0000              0.0000              0.0000
    in Y         0.0000              0.0000              0.0036
    in Z         0.0000              0.0000              0.4109
 Raman Intsty    0.0000              0.0000              0.0000

                Real    Imaginary   Real    Imaginary   Real    Imaginary

     1 x       0.000000 -0.000000  0.000000 -0.000000  0.000000  0.000000
     1 y       0.014259  0.000000  0.778462  0.000000  0.058630  0.000000
     1 z       0.778462  0.000000 -0.014259 -0.000000 -0.624784 -0.000000
     2 x       0.000000 -0.000000  0.000000 -0.000000 -0.000000  0.000000
     2 y       0.011493  0.000000  0.627424  0.000000 -0.072744 -0.000000
     2 z       0.627424  0.000000 -0.011493  0.000000  0.775187  0.000000


 Frequency     353.0709            434.9531           1091.1896
 IR Intensity    0.4145              0.0006              0.4139
    in X         0.0000              0.0006              0.4139
    in Y         0.4109              0.0000              0.0000
    in Z         0.0036              0.0000              0.0000
 Raman Intsty    0.0000              0.0000              0.0000

                Real    Imaginary   Real    Imaginary   Real    Imaginary

     1 x      -0.000000  0.000000 -0.800850  0.000000 -0.598865 -0.000000
     1 y       0.624784  0.000000  0.000000 -0.000000 -0.000000  0.000000
     1 z       0.058630  0.000000 -0.000000 -0.000000 -0.000000 -0.000000
     2 x      -0.000000  0.000000 -0.598865  0.000000  0.800850 -0.000000
     2 y      -0.775187 -0.000000  0.000000  0.000000  0.000000 -0.000000
     2 z      -0.072744  0.000000  0.000000  0.000000  0.000000 -0.000000




--------------------------------------------------------------------------------
  K point     28 =  -0.218750  0.000000  0.000000  Weight =    0.007
--------------------------------------------------------------------------------

 Frequencies (cm-1) and Eigenvectors : 

 Frequency      34.3396             34.3396            359.5598
 IR Intensity    0.0000              0.0000              0.4145
    in X         0.0000              0.0000              0.0000
    in Y         0.0000              0.0000              0.0002
    in Z         0.0000              0.0000              0.4144
 Raman Intsty    0.0000              0.0000              0.0000

                Real    Imaginary   Real    Imaginary   Real    Imaginary

     1 x      -0.000000  0.000000 -0.000000  0.000000  0.000000  0.000000
     1 y      -0.539397  0.000000 -0.560985  0.000000 -0.012779  0.000000
     1 z       0.560985 -0.000000 -0.539397  0.000000 -0.627840  0.000000
     2 x      -0.000000  0.000000 -0.000000  0.000000 -0.000000  0.000000
     2 y      -0.435247  0.000000 -0.452667  0.000000  0.015837 -0.000000
     2 z       0.452667 -0.000000 -0.435247  0.000000  0.778076  0.000000


 Frequency     359.5598            416.4381           1094.4270
 IR Intensity    0.4145              0.0005              0.4140
    in X         0.0000              0.0005              0.4140
    in Y         0.4144              0.0000              0.0000
    in Z         0.0002              0.0000              0.0000
 Raman Intsty    0.0000              0.0000              0.0000

                Real    Imaginary   Real    Imaginary   Real    Imaginary

     1 x      -0.000000  0.000000 -0.798362 -0.000000 -0.602177  0.000000
     1 y      -0.627840  0.000000  0.000000  0.000000  0.000000  0.000000
[...]
     2 x      -0.000000 -0.000000  0.313419  0.000108  0.949615 -0.000070
     2 y      -0.863825  0.000000 -0.000000  0.000000  0.000000 -0.000000
     2 z      -0.013960  0.000000  0.000000  0.000000  0.000000  0.000000




--------------------------------------------------------------------------------
  K point    143 =   0.455000  0.500000  0.500000  Weight =    0.007
--------------------------------------------------------------------------------

 Frequencies (cm-1) and Eigenvectors : 

 Frequency     138.2418            138.2418            205.7683
 IR Intensity    0.0156              0.0156              0.3989
    in X         0.0000              0.0000              0.0000
    in Y         0.0156              0.0000              0.0000
    in Z         0.0000              0.0156              0.3989
 Raman Intsty    0.0000              0.0000              0.0000

                Real    Imaginary   Real    Imaginary   Real    Imaginary

     1 x      -0.000000 -0.000000 -0.000000 -0.000000  0.000000  0.000000
     1 y      -0.883896  0.000000  0.021093 -0.000000 -0.000653  0.000000
     1 z       0.021093 -0.000000  0.883896 -0.000000 -0.467207  0.000000
     2 x       0.000000 -0.000000 -0.000000 -0.000000 -0.000000  0.000000
     2 y      -0.467074  0.000000  0.011146 -0.000000  0.001236 -0.000000
     2 z       0.011146  0.000000  0.467074  0.000000  0.884147  0.000000


 Frequency     205.7683            757.4846            966.3749
 IR Intensity    0.3989              0.0655              0.3490
    in X         0.0000              0.0655              0.3490
    in Y         0.3989              0.0000              0.0000
    in Z         0.0000              0.0000              0.0000
 Raman Intsty    0.0000              0.0000              0.0000

                Real    Imaginary   Real    Imaginary   Real    Imaginary

     1 x       0.000000  0.000000  0.963055  0.001082 -0.269301 -0.000002
     1 y      -0.467207  0.000000  0.000000  0.000000 -0.000000  0.000000
     1 z       0.000653 -0.000000  0.000000  0.000000 -0.000000  0.000000
     2 x      -0.000000  0.000000  0.269301  0.000303  0.963056  0.000007
     2 y       0.884147 -0.000000 -0.000000  0.000000  0.000000 -0.000000
     2 z      -0.001236  0.000000  0.000000  0.000000  0.000000  0.000000




--------------------------------------------------------------------------------
  K point    144 =   0.465000  0.500000  0.500000  Weight =    0.007
--------------------------------------------------------------------------------

 Frequencies (cm-1) and Eigenvectors : 

 Frequency     142.9531            142.9531            200.3994
 IR Intensity    0.0260              0.0260              0.3885
    in X         0.0000              0.0000              0.0000
    in Y         0.0001              0.0259              0.0000
    in Z         0.0259              0.0001              0.3885
 Raman Intsty    0.0000              0.0000              0.0000

                Real    Imaginary   Real    Imaginary   Real    Imaginary

     1 x      -0.000000  0.000000 -0.000000  0.000000 -0.000000  0.000000
     1 y       0.063732 -0.000000  0.907378 -0.000000  0.001632  0.000000
     1 z      -0.907378 -0.000000  0.063732  0.000000 -0.415453 -0.000000
     2 x      -0.000000  0.000000 -0.000000  0.000000 -0.000000  0.000000
     2 y       0.029109 -0.000000  0.414435 -0.000000 -0.003573 -0.000000
     2 z      -0.414435  0.000000  0.029109  0.000000  0.909606  0.000000


 Frequency     200.3994            764.3701            961.8174
 IR Intensity    0.3885              0.0820              0.3325
    in X         0.0000              0.0820              0.3325
    in Y         0.3885              0.0000              0.0000
    in Z         0.0000              0.0000              0.0000
 Raman Intsty    0.0000              0.0000              0.0000

                Real    Imaginary   Real    Imaginary   Real    Imaginary

     1 x       0.000000 -0.000000 -0.975766  0.000078  0.218818 -0.000008
     1 y       0.415453  0.000000 -0.000000  0.000000  0.000000  0.000000
     1 z       0.001632  0.000000 -0.000000  0.000000  0.000000  0.000000
     2 x       0.000000 -0.000000 -0.218818  0.000017 -0.975766  0.000035
     2 y      -0.909606 -0.000000 -0.000000 -0.000000 -0.000000  0.000000
     2 z      -0.003573  0.000000 -0.000000  0.000000 -0.000000  0.000000




--------------------------------------------------------------------------------
  K point    145 =   0.475000  0.500000  0.500000  Weight =    0.007
--------------------------------------------------------------------------------

 Frequencies (cm-1) and Eigenvectors : 

 Frequency     147.1740            147.1740            195.6849
 IR Intensity    0.0447              0.0447              0.3698
    in X         0.0000              0.0000              0.0000
    in Y         0.0447              0.0000              0.0000
    in Z         0.0000              0.0447              0.3698
 Raman Intsty    0.0000              0.0000              0.0000

                Real    Imaginary   Real    Imaginary   Real    Imaginary

     1 x       0.000000  0.000000 -0.000000  0.000000  0.000000 -0.000000
     1 y       0.940332  0.000000 -0.011222 -0.000000  0.000020 -0.000000
     1 z       0.011222  0.000000  0.940332  0.000000 -0.340074 -0.000000
     2 x      -0.000000 -0.000000 -0.000000 -0.000000  0.000000 -0.000000
     2 y       0.340050  0.000000 -0.004058 -0.000000 -0.000056  0.000000
     2 z       0.004058  0.000000  0.340050  0.000000  0.940399  0.000000


 Frequency     195.6849            769.7702            958.1639
 IR Intensity    0.3698              0.1019              0.3126
    in X         0.0000              0.1019              0.3126
    in Y         0.3698              0.0000              0.0000
    in Z         0.0000              0.0000              0.0000
 Raman Intsty    0.0000              0.0000              0.0000

                Real    Imaginary   Real    Imaginary   Real    Imaginary

     1 x       0.000000 -0.000000  0.986784 -0.000634 -0.162042 -0.000007
     1 y      -0.340074  0.000000  0.000000  0.000000 -0.000000 -0.000000
     1 z      -0.000020 -0.000000 -0.000000 -0.000000  0.000000 -0.000000
     2 x      -0.000000 -0.000000  0.162042 -0.000104  0.986784  0.000040
     2 y       0.940399 -0.000000 -0.000000 -0.000000  0.000000 -0.000000
     2 z       0.000056  0.000000 -0.000000  0.000000  0.000000  0.000000




--------------------------------------------------------------------------------
  K point    146 =   0.485000  0.500000  0.500000  Weight =    0.007
--------------------------------------------------------------------------------

 Frequencies (cm-1) and Eigenvectors : 

 Frequency     150.5210            150.5210            192.0085
 IR Intensity    0.0780              0.0780              0.3365
    in X         0.0000              0.0000              0.0000
    in Y         0.0001              0.0779              0.0000
    in Z         0.0779              0.0001              0.3365
 Raman Intsty    0.0000              0.0000              0.0000

                Real    Imaginary   Real    Imaginary   Real    Imaginary

     1 x       0.000000 -0.000000 -0.000000 -0.000000 -0.000000  0.000000
     1 y      -0.040122 -0.000000  0.972207  0.000000  0.000256  0.000000
     1 z       0.972207  0.000000  0.040122  0.000000 -0.230659 -0.000000
     2 x       0.000000 -0.000000 -0.000000  0.000000 -0.000000 -0.000000
     2 y      -0.009511 -0.000000  0.230463  0.000000 -0.001080 -0.000000
     2 z       0.230463  0.000000  0.009511  0.000000  0.973034  0.000000


 Frequency     192.0085            773.4993            955.5995
 IR Intensity    0.3365              0.1251              0.2894
    in X         0.0000              0.1251              0.2894
    in Y         0.3365              0.0000              0.0000
    in Z         0.0000              0.0000              0.0000
 Raman Intsty    0.0000              0.0000              0.0000

                Real    Imaginary   Real    Imaginary   Real    Imaginary

     1 x       0.000000  0.000000  0.995010  0.000006 -0.099778 -0.000002
     1 y      -0.230659 -0.000000  0.000000  0.000000 -0.000000 -0.000000
     1 z      -0.000256 -0.000000  0.000000 -0.000000  0.000000  0.000000
     2 x      -0.000000 -0.000000  0.099778  0.000001  0.995010  0.000016
     2 y       0.973034  0.000000 -0.000000  0.000000  0.000000  0.000000
     2 z       0.001080  0.000000  0.000000  0.000000  0.000000  0.000000




--------------------------------------------------------------------------------
  K point    147 =   0.495000  0.500000  0.500000  Weight =    0.007
--------------------------------------------------------------------------------

 Frequencies (cm-1) and Eigenvectors : 

 Frequency     152.4415            152.4415            189.9232
 IR Intensity    0.1315              0.1315              0.2830
    in X         0.0000              0.0000              0.0000
    in Y         0.0000              0.1315              0.0000
    in Z         0.1315              0.0000              0.2830
 Raman Intsty    0.0000              0.0000              0.0000

                Real    Imaginary   Real    Imaginary   Real    Imaginary

     1 x       0.000000  0.000000 -0.000000 -0.000000  0.000000  0.000000
     1 y      -0.012065  0.000000  0.996467 -0.000000  0.000074 -0.000000
     1 z       0.996467  0.000000  0.012065  0.000000 -0.083109 -0.000000
     2 x      -0.000000  0.000000 -0.000000 -0.000000 -0.000000  0.000000
     2 y      -0.001006  0.000000  0.083103 -0.000000 -0.000888  0.000000
     2 z       0.083103  0.000000  0.001006  0.000000  0.996540  0.000000


 Frequency     189.9232            775.4067            954.2746
 IR Intensity    0.2830              0.1510              0.2636
    in X         0.0000              0.1510              0.2636
    in Y         0.2830              0.0000              0.0000
    in Z         0.0000              0.0000              0.0000
 Raman Intsty    0.0000              0.0000              0.0000

                Real    Imaginary   Real    Imaginary   Real    Imaginary

     1 x       0.000000  0.000000  0.999431  0.000766 -0.033715  0.000000
     1 y      -0.083109  0.000000  0.000000 -0.000000 -0.000000 -0.000000
     1 z      -0.000074 -0.000000  0.000000  0.000000  0.000000  0.000000
     2 x      -0.000000  0.000000  0.033715  0.000026  0.999431 -0.000001
     2 y       0.996540 -0.000000  0.000000  0.000000  0.000000 -0.000000
     2 z       0.000888  0.000000 -0.000000  0.000000  0.000000  0.000000




--------------------------------------------------------------------------------
  Phonon properties (per mole of unit cells): Temperature =      0.000 K
--------------------------------------------------------------------------------
  Zero point energy            =        0.141977 eV
--------------------------------------------------------------------------------

  Phonon density of states : 

--------------------------------------------------------------------------------
 Frequency (cm-1) Density of States                                             
--------------------------------------------------------------------------------
    0.00000 |************************************************************  0.085
   17.13807 |***********************************                           0.051
   34.27615 |**************************                                    0.037
   51.41422 |*******************                                           0.027
   68.55229 |*********************                                         0.031
   85.69037 |*********************                                         0.031
  102.82844 |****************                                              0.024
  119.96651 |****************                                              0.024
  137.10459 |**************************                                    0.037
  154.24266 |**                                                            0.003
  171.38073 |**                                                            0.003
  188.51880 |*********************                                         0.031
  205.65688 |**************                                                0.020
  222.79495 |****************                                              0.024
  239.93302 |***********                                                   0.017
  257.07110 |****************                                              0.024
  274.20917 |***********                                                   0.017
  291.34724 |****************                                              0.024
  308.48532 |***********                                                   0.017
  325.62339 |***********                                                   0.017
  342.76146 |****************                                              0.024
  359.89954 |***********                                                   0.017
  377.03761 |****************                                              0.024
  394.17568 |***********                                                   0.017
  411.31376 |****************                                              0.024
  428.45183 |****************                                              0.024
  445.58990 |**************************                                    0.037
  462.72798 |***********************                                       0.034
  479.86605 |**                                                            0.003
  497.00412 |****                                                          0.007
  514.14219 |**                                                            0.003
  531.28027 |**                                                            0.003
  548.41834 |**                                                            0.003
  565.55641 |**                                                            0.003
  582.69449 |**                                                            0.003
  599.83256 |**                                                            0.003
  616.97063 |**                                                            0.003
  634.10871 |**                                                            0.003
  651.24678 |****                                                          0.007
  668.38485 |**                                                            0.003
  685.52293 |**                                                            0.003
  702.66100 |****                                                          0.007
  719.79907 |**                                                            0.003
  736.93715 |****                                                          0.007
  754.07522 |*******                                                       0.010
  771.21329 |****                                                          0.007
  788.35137 |                                                              0.000
  805.48944 |                                                              0.000
  822.62751 |                                                              0.000
  839.76558 |                                                              0.000
  856.90366 |                                                              0.000
  874.04173 |                                                              0.000
  891.17980 |                                                              0.000
  908.31788 |                                                              0.000
  925.45595 |                                                              0.000
  942.59402 |*******                                                       0.010
  959.73210 |*******                                                       0.010
  976.87017 |*******                                                       0.010
  994.00824 |*******                                                       0.010
 1011.14632 |****                                                          0.007
 1028.28439 |*******                                                       0.010
 1045.42246 |*********                                                     0.014
 1062.56054 |*********                                                     0.014
 1079.69861 |************************************************************  0.085
--------------------------------------------------------------------------------




  Phonon density of states written as mgo_chain.dens                



  Phonon dispersion curves : 

--------------------------------------------------------------------------------
  Section number =   1
--------------------------------------------------------------------------------
  Frequency (cm-1) Phonon dispersion                                            
--------------------------------------------------------------------------------
  1082.05   |              *******************************               
  1036.96   |         ******                              ******         
   991.88   |     ****                                         ****      
   946.79   |******                                                ******
   901.70   |                                                            
   856.62   |                                                            
   811.53   |                                                            
   766.45   |**                                                       ***
   721.36   |  ***                                                  ***  
   676.28   |     **                                             ***     
   631.19   |       **                                         ***       
   586.11   |         **                                     ***         
   541.02   |           **                                  **           
   495.94   |             *                               **             
   450.85   |              **                            **              
   405.77   |                *     ****************    **                
   360.68   |                 *****               ******                 
   315.60   |             **** **                   ** *****             
   270.51   |         ****       **                **       ****         
   225.43   |     ****            **              *            *****     
   180.34   |*****                  **          **                  *****
   135.26   |***                     **        *                      ***
    90.17   |   ******                 *     **                 ******   
    45.09   |        *******            *   **            ******         
     0.00   |              *******************************               
--------------------------------------------------------------------------------


  Phonon dispersion written as mgo_chain.disp                

  Time to end of properties =       0.0596 seconds


  Peak dynamic memory used =       0.50 MB 


  Timing analysis for GULP :

--------------------------------------------------------------------------------
  Task / Subroutine                                          Time (Seconds)
--------------------------------------------------------------------------------
  Calculation of reciprocal space energy and derivatives          0.0053
  Calculation of real space energy and derivatives                0.0092
  Calculation of phonons                                          0.0382
  Disk read/write operations to scratch files                     0.0002
--------------------------------------------------------------------------------
  Total CPU time                                                  0.0598
--------------------------------------------------------------------------------


  Job Finished at 11:27.55 28th September  2018                               

